% Model:              Simulaciones Comsol.mph
% Version:            COMSOL 5.5.0.359
% Date:               Jul 17 2024, 14:42
% Dimension:          3
% Nodes:              826
% Expressions:        1
% Description:        Surface
% x                       y                        z                        Color
5.962026216256703         2500.000000000029        2.1189091284819113       0.007766219247019787
2.089012034312139         2500                     2.089012034312139        0.002770642193793283
2.0250545667360105        2500.000000000029        5.9108075685109815       0.007728882009755557
1.9653338529232742        2500                     9.902904984828798        0.009987227834181123
3.282437332596256         2500                     8.746639742991473        0.014031062527729128
47.87997165605698         2499.999999999971        5.983005200654142        0.007792275582812797
47.85014975199819         2500                     2.1498502480018002       0.0028516331893199674
44.03501741856981         2499.99999999997         2.1278803734386575       0.00790105835778448
48.027884970556045        2499.99999999997         64.1267242996423         0.007377104497914575
44.15840792725196         2499.99999999997         68.03893662341947        0.0074241403090574845
48.030814133662105        2500                     68.03081413366212        0.002585802378670762
45.58195887280299         2500                     64.27996439000029        0.013548952524684077
46.14877152190575         2500                     63.04920772054585        0.013188067964431036
48.016610248649314        2500                     60.082971617655396       0.010175978738066103
46.67652550724456         2500                     59.230132796628666       0.0165764211016598
48.00606652631873         2499.9999999999695       55.94208378807487        0.012280763890059627
1.9961182886453015        2500.000000000029        64.11217851637662        0.007470040801770779
2.0036409088380793        2500                     67.9963590911619         0.0025966163494453654
5.883966901757915         2500.000000000029        67.9815788972337         0.007599600277831625
6.747769373760815         2500                     65.00462435346938        0.01707789710846996
9.906665277903375         2500                     67.95359869188519        0.01005206321748845
7.191874813126041         2500                     65.22720100429423        0.0169105223703724
14.00950416891829         2500.000000000029        67.91180747643887        0.012409506567053799
10.827562837597531        2500                     65.90807122753041        0.01970245908174525
6.968101551016591         2500                     65.03807914839582        0.017403497147745504
4.148082754019187         2500                     61.67333811323194        0.016923237731604666
3.959600666836536         2500                     61.43111580879975        0.01692703028971245
3.9433187138325803        2500                     61.441931317081085       0.016860200251468265
3.9278246827921386        2500.0000000000005       61.419973324581875       0.01682573578615711
3.9436762006198327        2500.0000000000005       61.41261704931922        0.016901567568759383
1.947374481967699         2500.000000000029        55.970382792672076       0.011906809052454791
1.971596558864618         2500                     60.08997128802595        0.009764567583607348
7.318007697102866         2500                     64.93678787399725        0.018255199710071193
11.681387045456859        2500                     64.41655962806324        0.02692001511154342
14.883668271095999        2500                     65.44208409498466        0.024920457660698885
16.465886035915876        2500                     65.8546263262424         0.024493868095230183
16.979377748419953        2500                     66.52885587626527        0.02096844184170033
21.99800705484995         2500.0000000000227       67.87579329130823        0.01460499771848636
18.152327923344544        2500                     67.88420952309323        0.01367466779889711
17.335997046501852        2500                     65.64491447857033        0.026114385479323765
5.719364098497273         2500                     8.135026939329773        0.02140311056331607
4.939239810427253         2500                     8.55598848781977         0.020135665701896597
5.398583553506889         2500.0000000000005       9.176118849847384        0.022692861097533483
6.063179809454038         2500                     8.717138664713563        0.023606314041781616
3.932467638468566         2500                     12.126332280255754       0.020516916641870348
4.867408305719481         2500                     10.988174431185895       0.023331890270388716
3.239258771514175         2500                     10.462619744631523       0.01599561109828844
1.9317068794993744        2500.000000000029        14.021477690844774       0.011630796373910368
4.132004831046846         2500                     9.380741548092189        0.01836396019393091
14.014526576466109        2500.000000000029        2.0863170141314837       0.012477115988916999
8.879881191972098         2500                     4.163933644429737        0.017430547999632125
9.535857112017876         2500                     4.839651225404338        0.02094461087201387
8.178307702214862         2500                     5.175748511637744        0.02001779062078462
8.732011054240461         2500.0000000000005       5.71249220879977         0.022601501650816758
9.948235258145466         2500                     2.1169532972799523       0.010643925654974533
6.320585562552308         2500                     5.921021638316057        0.01871659303922104
4.567757318312307         2500                     7.053859338437278        0.01623135328119726
5.2596736821620045        2500                     5.196393922471893        0.01461136229313555
29.115091499803782        2499.9999999999977       1.977159945721195        0.013368183893098014
25.582575651622392        2500                     1.9828549051013389       0.013626153024588802
27.114505060722664        2500                     2.925599609268598        0.019394918508720858
25.046844106807942        2500                     3.434787897495335        0.02254132299994862
21.992382650535006        2500.0000000000227       2.0096258990946616       0.013700348975510304
31.195833048821882        2500                     3.1803659892571234       0.020228116819541602
33.99380368926578         2500                     3.396323906812068        0.020024672234006047
32.516228961339436        2500                     1.99093367354165         0.012921001701889796
36.02240774373274         2499.9999999999695       2.023033812949838        0.011903955455035128
1.9239526105573848        2500                     18.224192651489375       0.013010420440222006
3.482053915621633         2500                     18.167285044474383       0.022285296321054117
3.7837003282797843        2500                     17.52295476712182        0.02374354612069163
3.8957203245022214        2500                     18.160035455659564       0.02475570463987637
1.9346975455041435        2500.0000000000286       22.467952637279062       0.014118388595240514
3.824679563751286         2500                     19.5382845969351         0.025032366981451337
4.9880801984522245        2500                     15.98500308771348        0.02906326064518549
4.607213170816757         2500                     14.937442212047479       0.026363709524254163
5.4451166533262105        2500                     14.044764297293321       0.02902027452213645
6.493760194432187         2500                     15.547119874312191       0.035331551343613446
28.321050875509968        2500                     3.5622311157330664       0.023182989439376
29.425632520677873        2500                     3.925057701016527        0.02498645777848442
25.905169354391496        2500                     3.8932877781145936       0.025269887669726154
34.869230967318956        2500                     7.332969056671603        0.03775435492560398
34.57597999163874         2500                     6.470785883626731        0.03426079587669522
34.13416391697915         2500                     7.383502734839641        0.03872534765423589
34.758880922509206        2500.0000000000005       7.858231527561701        0.039717174748747364
33.30820357051059         2500                     5.08893666765324         0.029326176023397526
31.106491020889013        2500                     5.2458257390703915       0.031218505584906485
32.10173678109267         2500                     6.300405533368312        0.03583625242905371
32.832525012213324        2500.0000000000005       7.879093041562559        0.041857109311821364
30.515462644671757        2500                     7.368593463822782        0.04159760333971671
35.436880283883845        2500                     4.079526888932954        0.023012649362472846
38.54775456875478         2500                     3.6731023915052283       0.018522107008231384
39.64425966445381         2500                     3.1433483949024095       0.01532743082247584
40.07720760902282         2500                     2.080293680324071        0.010583405171834512
39.42740399220501         2499.9999999999995       5.876313230179474        0.02599256591854492
39.344524756533055        2500                     5.320735210570873        0.02399278706898695
38.9929145622749          2500                     6.074789539966672        0.027351257913136265
38.341346664299515        2500                     5.603608160181235        0.02601465807745625
39.548438235312595        2500                     6.70060903518568         0.02826036634318063
40.24526177539528         2500                     5.878581416981707        0.02459811074579515
44.486325419949814        2500                     5.390679639079178        0.015922030431346636
40.86255128931932         2500                     4.14471530728376         0.01718135580818214
44.94198937211796         2500                     8.707972140157827        0.020057354316864607
45.903973947176674        2500                     9.855256655097376        0.018516335103581645
47.956037992860814        2500                     9.949000414162121        0.010559290970829582
48.028087455916           2499.9999999999695       14.038341870499242       0.01199148987316434
41.56186864117459         2500                     7.2376592206369414       0.025880731097760422
42.60661177843649         2500                     7.607559008685473        0.025033477744521082
46.158165147538185        2500                     16.74253436454941        0.023533757381002544
48.09838222020221         2500                     18.21091383746733        0.01305789283320076
48.12336715431116         2499.9999999999695       22.44888641137173        0.01365925392507066
47.166972578431924        2500                     19.42116579393047        0.019298171862545344
45.847945443828806        2500                     15.92695869215092        0.02473744205501724
45.443283447033           2500                     10.823461495070397       0.021346318287020265
46.186744418975685        2500                     13.395035772831063       0.02105225961592279
41.29329725802212         2500                     65.86632724182498        0.01680987514210469
40.126516517812526        2500                     68.01730515364771        0.009852076491901599
41.98033001547563         2500                     65.08069400358634        0.018980647989320507
43.88036768610314         2500                     64.44084728861247        0.016548404762566388
44.086968386164436        2500.0000000000005       61.50548482282991        0.022515342063703127
44.38712951657505         2500                     61.68267090684655        0.021526038203085584
44.191448504706266        2500.0000000000005       61.360620276858654       0.022650568174149982
44.565667097973915        2500.0000000000005       60.87497781830006        0.021998152254767887
44.19657501241332         2500                     61.21874170123028        0.022891337976316133
45.32918006853848         2500                     63.93677444945627        0.014820486244685006
40.07212040003353         2500                     65.27841912266815        0.020767190868974147
36.0158908410617          2499.9999999999695       67.98886114994475        0.011809609329728715
38.72377897413871         2500                     67.12384156408538        0.014954866281830605
37.842798839968545        2500                     65.93990309230284        0.02091098098116486
34.570140067056336        2500                     66.56943964303218        0.020118297745822186
29.09462843275762         2499.9999999999977       67.91825321125933        0.01407675734409177
30.07741843396979         2500                     66.0995742182735         0.02464544186923426
29.07350732443389         2500                     66.08440191766847        0.025007233615336674
30.531169596936603        2500                     66.79963231878189        0.020531346170814223
32.649499016921894        2500                     66.5326348207214         0.02122216881755455
33.73540315869197         2500                     66.79130617535702        0.019384912348675776
32.49545592757623         2500                     67.95926373106073        0.013375637009243543
43.93612169374353         2500                     61.283867060278816       0.023490737683558208
41.33923578699679         2500                     63.73569251921538        0.0241629544205982
44.08776547139903         2500                     60.97397885278015        0.02367656035365287
48.025635940348           2500                     51.755739262446895       0.013366690129983448
46.65851959090979         2500                     53.23680471485602        0.020429747867461302
45.431671144056594        2500                     54.47410461188342        0.026637093038086
46.27429214034648         2500                     59.14062994233502        0.018281837555463983
42.07388112471014         2500                     59.19103005504697        0.03262301674336174
43.12702030941468         2500                     57.27671134169411        0.03345334336205369
45.47179595852621         2500                     58.53932523964205        0.02234541298768554
44.07515773781515         2500                     56.30257011457178        0.03066351926429082
38.12240214641932         2500                     64.72374073407696        0.02542473374157233
39.347998719876685        2500                     62.49178594713719        0.031205727928280504
36.02593720442012         2500                     62.358477076772786       0.03762851029293335
19.654391916323753        2500                     65.08846273686167        0.030163792972860485
21.59647912714417         2500                     65.41753372085729        0.028953200888805215
25.172660195053236        2500                     65.61002269957902        0.02827216098156195
26.063498311787384        2500                     66.24890972234452        0.024488943964673056
25.574447298669746        2500                     67.89849195374768        0.01451522829906322
26.39802717740525         2500                     65.50618059949672        0.028935295287473344
31.748165519580446        2500.0000000000005       64.00918835303372        0.0347872085148239
32.348054795223774        2500                     62.98099679250254        0.03865124606821173
31.002289120387132        2500.0000000000005       64.02089768933226        0.03519668922219065
30.51572762377168         2500.0000000000005       63.48972595029292        0.03792173951565428
32.83686529987088         2500                     65.55607531260343        0.026288638601259427
30.153031291547915        2500.0000000000005       64.09045262713552        0.03507421066221173
7.094396650664025         2500                     64.41272052714841        0.019353889728552936
9.418294544610848         2500                     62.53779784841965        0.02844471740927699
7.420584641119261         2500                     59.7944914045465         0.030169803791802043
7.613275011459597         2500.0000000000005       61.47320396998134        0.027920009070150395
8.252418272386848         2500.0000000000005       60.640940446814525       0.03158318398692108
6.604804592834704         2500                     60.58844623969662        0.025956027607666084
11.438722344762335        2500                     59.88264828154206        0.04105672522411937
12.105027392455856        2500                     60.014858180521266       0.04196545057325844
6.827636582450339         2500                     64.8539317050314         0.01757463767793139
13.628850591624525        2500                     63.196523567934264       0.034098562247973974
14.95915870564812         2500.0000000000005       62.244303266501824       0.0394703941322473
12.609656710877431        2500                     60.06889926727534        0.04261882720577208
15.384522684760471        2500                     63.31785227456619        0.0351754979199434
16.63596052322086         2500                     63.54960509265553        0.035085583341006144
17.465446838204883        2500                     60.97269003881976        0.04683618134902834
1.9174929783724983        2500.000000000028        38.97225221240959        0.014967147397494213
2.9024640208700063        2500                     36.63534917386113        0.022181519152752127
1.933991349250118         2500                     35.32557601499082        0.015376617313785932
1.8984262505960658        2500.0000000000286       47.53257246474737        0.013945309083147932
1.9113812451029362        2500                     51.77844412169008        0.012977455579271609
2.722714516364273         2500                     51.1354938441866         0.018217282212707915
4.718702158871206         2500.0000000000005       54.216616126381055       0.027558252804102353
4.79684666932478          2500                     54.128063484066956       0.027979171424789735
4.718103093805668         2500                     54.041706049296565       0.027722517717743842
4.693708373834487         2500.0000000000005       53.9004917198707         0.027666260971616372
4.642640073387653         2500                     53.949174447606914       0.027330220632235693
4.769003263451749         2500                     53.987273922675975       0.02801828244509859
4.86358120531604          2500                     53.688171015395994       0.028741127897616278
4.725199837152159         2500                     36.42902524689869        0.034640809072832075
1.943642429934437         2500.000000000028        31.028224740602067       0.015166851888745071
4.222235340008911         2500                     30.281659890697867       0.03126685868451678
4.242127573763953         2500                     30.20037698060573        0.03140275862268049
4.264293661779013         2500                     30.12483336266684        0.03154228719855099
4.262670769389038         2500                     30.17958160014502        0.031541247630759196
4.270427737646519         2499.9999999999995       30.23397366716466        0.0315999094067397
4.29531684494197          2500                     30.19016772764304        0.031739141067254756
1.9011148039406036        2500                     43.26052980591275        0.014525111614559253
3.068237123970834         2500                     42.51717695643801        0.022814006231964192
5.60712253858504          2500                     57.654567763069394       0.02781981009001553
4.460569165692669         2500                     58.856210719517726       0.021743358897965644
12.11697236880796         2500                     59.67453653447114        0.04315796863589935
6.753562406502159         2500                     19.76646405985475        0.04099043263867729
6.961220290044055         2500                     19.496081387270742       0.041631133548500426
6.4696581639192985        2500                     20.1843411396599         0.039654618543851154
6.961546431846742         2500                     19.80773381234946        0.04198055923885483
6.811260925879639         2500                     20.160724648173954       0.04157098069068517
5.037040477214473         2500                     26.513784052783816       0.03527144100484933
6.036556606671361         2500                     24.792766189853303       0.04036124955500227
4.678087234204378         2500                     24.206760713193006       0.03227460137110972
5.704462776978947         2500                     22.988632602151746       0.03766067020341121
7.281472125486946         2500                     23.769144498688853       0.04639949468924327
4.084862019872722         2500                     22.595118247900245       0.028152526858595466
3.2175312292379328        2500                     24.09198405409486        0.02290274970592771
1.9401210632458277        2500                     26.739599612430375       0.01492280686872345
3.3552007386937737        2500                     27.148161544495913       0.024712994104207957
42.41648250123467         2500                     55.52412007145281        0.03885055943433739
43.3770003710173          2500                     53.91528598219466        0.036339676564451855
21.739860436949193        2500                     61.86524209207874        0.04644411615066033
21.864118754456122        2500                     61.887589243198214       0.046429761983070986
21.988885650430053        2500                     61.9520089715213         0.046120643125183276
26.576347085524564        2500                     61.731333993387416       0.047653660459072045
26.342880974678604        2500.0000000000005       61.49310658994184        0.048608632555068414
22.24523165483128         2500                     61.8403807422234         0.046696698924548335
26.786711249443847        2500                     61.69805241420349        0.04777017838686162
26.693712202303004        2500                     62.05091141180586        0.04606374920272514
48.049044449145605        2499.9999999999695       47.518244384606255       0.014152304671874076
46.374422896800795        2500.0000000000005       49.154851305711915       0.024699603242850993
46.15305062249348         2500.0000000000005       49.007601949393596       0.026099002500707437
46.107415438723756        2500.0000000000005       49.41415263687874        0.026057021779066932
46.189532337464314        2500                     48.60328813958472        0.026059326261553547
45.8806329052154          2500                     48.763636284049994       0.027783872362057267
46.22372177070028         2500                     48.89161211601327        0.02573895809977117
46.56364164052124         2500                     45.863002048219016       0.024425744396950482
44.04948272948529         2500                     51.597577534788805       0.035959330771502644
43.819685868378485        2500                     50.54697015807679        0.03801045630516278
43.4324996608841          2500                     49.48834040258174        0.04089950969941866
42.71520512628388         2500                     51.53502675158608        0.04192433927081214
48.07815489702304         2500                     43.254106996367526       0.01480150040337876
46.950067534639714        2500                     43.446008134835466       0.022599568130587906
48.0877322493592          2499.999999999968        38.96602638246167        0.015055317742493666
13.085110905424326        2500                     4.677438400054747        0.024462352650994945
15.909018512765575        2500                     4.5815690365095705       0.026113450330836514
14.035964031155391        2500                     6.828403194810285        0.03408153618917363
16.282344635351222        2499.9999999999995       4.411189897316988        0.02540444431269514
18.141195103764666        2500                     2.0404732536583214       0.013437587050671745
7.595756978322367         2500                     11.82186831658181        0.0345063179369303
10.343475357382944        2500                     12.22957498619823        0.043636805028808824
8.881496533753202         2500                     10.507849439737987       0.03537354431501591
8.44764109591485          2500                     14.110773141229606       0.04113564784676503
12.695239542271565        2500                     8.184954332090062        0.03733069360939157
9.79521204853743          2500                     8.187167502278399        0.03217662066946795
11.024011494340664        2500                     10.39231197409562        0.040987871447015795
11.268061209430604        2500                     6.5866904076582315       0.029136849019487047
27.663855421810425        2500                     5.5158008464225805       0.03366783800263401
25.77359823133272         2500                     5.3284555064768755       0.03292519827682505
27.312861747471413        2500                     6.935766229055065        0.041404648816839834
24.89107587005389         2500                     6.364518472292308        0.03842621222475367
28.428910214148242        2500                     6.058849446815758        0.03647126379632047
28.276543576895953        2500                     8.126622654291591        0.04636082520647296
25.83248771125198         2500                     8.049803563372741        0.04664548684875012
18.364741278865875        2500                     7.989346159987488        0.04355083921677622
19.844738492493963        2500                     4.75036448583636         0.029233268535434925
16.334220458453643        2500                     4.5876657548342274       0.02641737189064576
18.524919127515847        2500                     3.2458115632974645       0.020374806941079498
20.803611598075566        2500                     5.8474524465342625       0.035035558125195446
18.563450317107293        2500                     8.187817911638193        0.0446169880822206
22.71884482968609         2500                     8.23609442828888         0.047086791704984365
23.41206928928643         2500                     6.256013120967905        0.03769105405210632
21.32816942413664         2500                     4.734958052999422        0.029552097944802576
23.846479523984613        2500                     5.661240396707221        0.03479470484875174
24.523108117077825        2500                     4.087679211626721        0.026481245502321678
45.951528013828565        2500                     40.08464964729096        0.029980275561660514
46.780520234097764        2500                     43.164403892201655       0.023808773998783735
45.96897902969097         2500                     35.41061068976379        0.0300307064194084
44.798567453576936        2500                     38.75994934771382        0.03712991268370117
46.160702510564114        2500                     35.03245976694109        0.02868951995795505
48.10211252425088         2500                     35.31974128343836        0.015032136762204497
48.11273479404831         2499.999999999968        31.019460898390914       0.014776571487615305
48.132602274680345        2500                     26.725602740202604       0.014457757376554636
47.111209628664994        2500                     28.689076734108408       0.021819540375021325
45.94356732321816         2500                     34.391810113696984       0.030192933706185202
46.051268010128325        2500                     30.320166353725558       0.029372913321323094
44.31814680916938         2500                     31.529014314946465       0.04016611042402153
43.88427748781122         2500                     29.196639831375915       0.042106569330957355
46.21292338266327         2500                     24.138617251471512       0.02663236529034934
45.674898147968236        2500                     22.46053093972433        0.029757346443749326
45.39261050725636         2500                     23.75054816665032        0.031998201385704986
44.76233315088364         2500                     23.120963669151415       0.03522416611302965
44.76749564976334         2500                     21.125610240865225       0.033803922807668946
46.124331993700544        2500                     20.62709771173587        0.02610626411795297
45.84052123700361         2500                     16.983654228112766       0.025530646870261065
44.47843259554348         2500                     19.189595022989092       0.03409567247767036
44.96131877795108         2500                     26.36128343644633        0.035432960904791255
46.16347213113865         2500                     26.704882237235985       0.02752035575564747
45.60282345852296         2500                     28.323961545467824       0.03172200983524742
43.45590474941238         2500                     27.59801598812177        0.044400514963997474
26.778734909110185        2500                     10.468283055946475       0.055652569378187564
13.935827773617945        2500                     9.795772370053978        0.04457064207458995
12.257531790391269        2500.0000000000005       12.237860790142328       0.048933803341775606
16.008505798437003        2500                     12.45958373517569        0.05641694888180766
17.929377418898635        2500.0000000000005       8.550454096178992        0.04521421067929671
13.30067128427541         2500                     14.02046595883412        0.05552392966957046
11.760635516369648        2500                     21.80209439439546        0.06374164735156614
11.53862402209655         2500                     21.12791907361379        0.06216685336935708
11.19103316317064         2500                     21.63238941650287        0.061850046381689484