% Model:              Simulaciones Comsol.mph
% Version:            COMSOL 5.5.0.359
% Date:               Jul 17 2024, 13:57
% Dimension:          3
% Nodes:              426
% Expressions:        1
% Description:        Surface
% x                       y                        z                        Color
3.6440066318766893        4999.999999999942        52.37907167006259        0.022969163165588332
3.6681543216158534        5000                     59.48723125509675        0.018132527810057666
5.541567698903118         5000                     58.50691684148204        0.026136698881231282
46.56802939865959         5000.000000000058        66.5680293986596         0.007198479664416715
43.0521023089388          5000                     62.83499450233485        0.021984955508551802
42.597250981618004        5000                     63.267336476840825       0.022667865474178296
42.26598333987021         5000                     63.66164542803466        0.021841655613156506
42.3312620023806          5000                     62.99676132085421        0.023988158822780475
40.77364184028158         5000                     63.11442579745122        0.026082910922149302
46.51503919680211         5000                     59.61658919868697        0.016835050289660133
3.6534816644104593        4999.999999999942        66.34651833558954        0.007179658109560009
10.664670284906906        5000                     61.21809315623387        0.03502605811625512
10.556872159112737        5000                     61.105835246753955       0.03503430128650822
10.25484080977072         5000                     66.35836909312124        0.017747809224799106
11.022372115702806        5000.000000000001        61.48965765564599        0.03435205121638068
14.820406990358281        5000                     66.40364319876498        0.020472074279139007
10.668195508207871        5000.000000000001        61.13543299382825        0.03528969821313435
10.612765638527657        5000                     61.07121010591014        0.035286006415012915
10.740015915393839        5000                     61.132967934986745       0.03541518605427231
10.6933620088674          5000.000000000001        61.02255437556916        0.03563234571144107
10.033317281623411        5000                     55.56050724686986        0.04642132956967944
7.737983895825183         5000                     56.8119772273494         0.03686984653577471
11.552404808556169        5000                     61.285727360948194       0.03588243125790671
33.469906280224876        5000                     66.56427208321126        0.020409637863573176
34.093776322891046        5000                     66.56674918429185        0.019907250333351383
33.617349726550984        5000                     65.83269886290915        0.023645858207190295
32.66146343434933         5000                     66.55875414113409        0.020722370012495245
15.595725278011123        5000                     65.73415783051354        0.02400654403874673
19.35677858972667         5000                     62.69827789943706        0.04109786251771556
21.631456506938008        5000                     66.45981142473997        0.02313258796489883
24.202212584291352        5000                     66.49094714387711        0.023152968349628746
20.41390392619466         5000                     63.60806938456243        0.03727579391843826
17.57972528406006         5000                     66.4276684824494         0.021794221617636205
15.863728771045846        5000                     66.4101886765384         0.0211760766323672
3.6676900563433525        5000                     34.2891687759724         0.027308170809218907
4.16675184348653          5000                     32.08651074623325        0.03034457578161775
3.675300199326095         5000                     31.77194363713119        0.027355961885589735
7.885251217592692         5000                     9.146253677838608        0.028626969584691204
7.958714382612261         5000                     8.916233268580104        0.02813174431699084
7.716373795651749         5000                     9.172826065461107        0.028132359190052775
3.708739546539972         4999.999999999942        17.627818327968523       0.024625440248628467
3.6324692742353997        4999.999999999942        3.6324692742353997       0.007151286501924892
40.61145217605963         5000                     7.512683946847338        0.028321244343597323
40.67854501925124         5000                     8.0653326422603          0.02936502575389843
40.95069918724706         5000.000000000001        7.671101759042195        0.027630962003641325
40.533470989857605        5000.000000000001        7.230759090861755        0.02757892502146471
46.30521599486392         5000.000000000058        3.694784005136084        0.007377385030413249
46.31114963870569         5000.000000000057        17.62587146553725        0.023136365385825385
46.28091761045464         5000                     10.540106016747586       0.018655550286929123
43.36472301882304         5000                     12.363593851095278       0.03157194088486882
7.960441948792982         5000                     9.415256744091366        0.029377980315054657
4.3602816597119896        5000                     30.86450903753212        0.03123994528151134
3.68351958084597          5000                     30.4383406014826         0.027309187804444038
8.121601421729789         5000                     9.150142029407784        0.029219998138566055
7.394430523324547         5000                     20.963607762337343       0.04434542399382299
9.324858457324925         5000                     19.178747706350862       0.052358741319999444
8.50623002900638          5000                     21.32369906335842        0.05067291226202636
10.256465802081037        5000                     15.932764916970328       0.047975481511409346
46.431417685446185        5000                     30.435011261826663       0.026553505051704847
45.87046645304095         5000                     31.498563517007746       0.030384215828516917
46.446795803853455        5000                     31.77135632739598        0.02674230504120134
46.45475983239159         5000                     34.296628042703986       0.026626017654503772
39.75240846961479         5000                     3.6130685308758608       0.017696480702783006
34.044784668434104        5000                     3.5443705234178253       0.02093400904815802
10.222303726541577        5000                     3.591629861597714        0.018000596297008353
3.6947668479111           5000                     10.518851585571781       0.01810999873991729
33.43396666944335         5000                     3.5347788732868          0.021317525665465804
33.651038052428284        5000                     4.193112464294915        0.024055556281328452
32.631882668898825        5000                     3.532236997177495        0.02160603625047295
40.01213864013753         5000                     7.520834049687656        0.029413599298121124
12.824769983374319        5000                     5.957064361774405        0.029605211476398136
13.62031794066691         5000                     8.357070510253099        0.038844267852528286
15.40272752357222         5000.000000000001        4.620351462115535        0.02543291827600043
15.558679236257518        5000.000000000001        7.343460691427756        0.03766782899453245
14.796518351406146        5000                     3.5509691435540756       0.020522669842026053
31.87958670093068         5000                     4.450697050360922        0.026804658065429414
20.880741266443195        5000                     4.55391073226367         0.028172358575347597
24.94349532909687         5000                     5.852706039230674        0.036125798571741155
22.278479064092394        5000                     4.145245086780953        0.026763492554473734
21.626525738646666        5000                     3.508846125550554        0.023174159349881478
24.190063624094385        5000                     3.5115200475540833       0.023513775397657793
17.56905791817777         5000                     3.529129815016152        0.021765254698431723
27.110769963597427        5000                     6.530459093323989        0.03983955478381438
27.47924717625569         5000                     3.501701769862435        0.023566765421725644
25.03013404637103         5000                     8.46619103860754         0.04827964280319568
21.09385890581843         5000                     9.528278549374244        0.05132828792606324
21.62014195068958         5000                     11.296585014991233       0.05806103627512702
18.013170002407072        5000                     10.021168696100851       0.04945156130566916
39.87320741936746         5000                     66.57769939355991        0.016037712389853586
36.08747628923554         5000                     63.860572332759034       0.031212445210940076
37.80081292042638         5000                     59.34040075653746        0.04344931061000146
36.98726224278875         5000                     61.59102558733639        0.037416829002599766
39.182021276945505        5000                     60.63684219459453        0.03718486737534174
29.872799110787426        5000                     62.85526885746458        0.040396575626683084
29.820987944524205        5000                     64.85025841150377        0.030464627774958904
33.40067367420342         5000                     62.81855183816472        0.038136404636051134
7.133318006278799         5000                     30.040048774423298       0.04755478083807971
7.3166218103922125        5000                     27.693282476310873       0.048154403538801016
5.850473180915603         5000                     26.96147224551118        0.03964850240498573
3.699441072068553         5000                     24.875353404071735       0.026645231113525722
35.161370738714396        5000                     7.4711880438405665       0.0376095735422823
28.219483589799665        5000                     7.842340124871717        0.04546238899738972
33.70760409838826         5000                     8.481664095800554        0.04346886349522648
36.89320673384683         5000                     16.658932245411208       0.05984446355253657
36.94277467215767         5000                     16.808187980095376       0.05999623488106196
37.09404535721365         5000.000000000001        16.842861094520355       0.0595047729720175
37.17706099789126         5000.000000000001        16.560336990528096       0.05883922756183868
36.82927352395926         5000.000000000001        16.254604044650254       0.05880908443700304
36.43107872329068         5000                     9.3360493811638          0.041082074162247545
40.43070154670644         5000                     12.707985713963296       0.04104071886125668
42.46806163031993         5000                     23.02898633754579        0.04707237767445048
42.80761432486198         5000                     25.243480336168176       0.04665887655626914
43.48140023229871         5000                     23.98484282696911        0.04206487500978017
46.38221792776802         5000                     24.863018348062866       0.025825408284320978
42.087734562448475        5000                     14.915114940841606       0.039486015478310155
42.47818807753713         5000                     18.532889244164146       0.0429271071655977
9.697294263744077         5000                     30.51654671964272        0.05992527638866253
36.6074380514666          5000                     16.89342115760122        0.06084824250839775
23.168571133768566        5000                     13.857345652101074       0.0659837261226723
21.831510351760848        5000                     15.849357805436723       0.07265519000732706
22.841983438745643        5000                     16.57950171740585        0.07428173934192095
20.958015603206906        5000                     16.212028951656094       0.0716860214739415
20.685825843410324        5000                     15.157180095005485       0.06901733451802908
21.89893030120322         5000                     16.390579871171283       0.07385005272410684
21.347886799614095        5000                     16.93070513433117        0.07386011534183978
22.202964058548897        5000                     17.44388069476461        0.07545650511010282
37.75866216094631         5000                     27.037278460999914       0.06929994305365081
37.72400694085739         5000                     26.312955430063806       0.06924582073130643
37.23719231757043         5000                     26.63290177369934        0.07061372185332372
37.73615979963221         5000                     26.106522093039718       0.06901443184281836
37.96253940626952         5000                     25.966757661868034       0.06803517333199215
37.168672653764624        5000                     25.856422241567245       0.06999826192519977
38.058977255675025        4999.999999999999        26.46785940355397        0.0678565188693958
43.48849484026954         5000                     43.07086063725248        0.04340511152109037
44.274280403719416        5000                     40.679893335527325       0.03916668649785076
42.803258118860896        5000                     41.787410621267775       0.04786123534273696
42.46192784369308         5000                     43.41474355983703        0.04896101886114646
41.16803518158348         5000.000000000001        41.138227149860754       0.055834185005579906
46.48666598534571         5000                     45.15462022509381        0.02545386342451436
46.46942061849881         5000                     40.40430200287464        0.026309526954893026
44.377841865178574        5000                     45.89276136073619        0.03684936356277767
46.48753898354984         5000.000000000057        52.44486103851348        0.0220931566422947
29.198638025119763        5000                     60.136513514533426       0.05178723260582358
39.75340570045737         5000                     52.33818229453764        0.05324286805872812
39.49429424319991         5000                     52.202524292486444       0.05419103580265018
39.88766877133386         5000                     52.10803578482254        0.05320510881145707
39.889052339005275        5000.000000000001        51.796509088435734       0.05345546664806443
39.65325483621312         5000                     51.880302955797085       0.054298710120856
6.577282335630282         5000                     37.246344659538266       0.04517916106644705
9.437717490752178         5000                     33.413383805205974       0.05893481890212289
6.370519374432712         5000                     34.751475776339426       0.04430611763151311
4.473511846127574         5000                     37.35950898938406        0.032506886255855204
6.52621255075546          5000                     47.816116036541764       0.04023974319907664
3.6447278202878053        5000                     45.1113142402785         0.026087616959011035
8.096250368101193         5000                     51.74535133329911        0.04466636861043724
7.7885437512955455        5000                     49.01660646573826        0.04666601218416152
5.508446782016096         5000                     43.6278406003428         0.03776181377469028
7.28144674549949          5000                     41.67358938923128        0.048701832958455385
4.760164108117984         5000                     39.7136130308985         0.03385204590057708
3.659966539980754         5000                     40.37710283683913        0.026997076754829097
7.688623616396555         5000                     46.62202297845974        0.04773061822837638
12.984353938889079        5000                     39.110236220563465       0.07451487327941812
12.769157826886804        5000.000000000001        38.29270967421036        0.07347618819384294
13.464264127791756        5000.000000000001        38.33738936727259        0.07681166518589709
11.342275912904205        5000                     32.63467523895831        0.06835290597191682
41.19010994619609         5000                     58.10042736321255        0.03754739781289553
43.89394491406407         5000                     58.249514298826575       0.028509555411644003
42.40500712740834         5000                     55.9167552500831         0.03739380131600757
34.065034803987885        5000                     61.05032415899794        0.04419201044001779
29.378728021139388        5000                     58.53083584869236        0.05764891687683911
33.749855299012765        5000                     56.78618662178023        0.058792993033112514
46.471266724890334        5000                     38.505846957084046       0.026479428416643552
43.17412299786078         5000                     31.68156124139439        0.04708151719338098
45.3694134993099          5000                     36.7512806345636         0.0332297037310891
40.20448027571288         5000                     35.58186567460501        0.06091258447900923
43.35273600457219         5000                     35.1684217662815         0.04568472763879693
36.339422672000765        5000                     52.3962972404031         0.06196990650121618
34.16719307795371         5000                     53.4955456132979         0.06527759272649425
33.60225394263282         5000                     52.91684697996778        0.06792234344108235
37.14209767641133         5000                     43.464408193055135       0.0707646482020733
35.377831544848185        5000                     46.12085414217023        0.07358694869409495
37.02873574688089         5000                     47.10503089774171        0.06832944400672489
33.882778957189615        5000                     52.11234564323255        0.06867956173606761
38.43097408608705         5000                     46.581322366981766       0.06333552545874381
37.09479506933311         5000                     37.03517448330476        0.0743346892013686
32.873450692175034        5000                     33.46712081456559        0.08487562784355673
28.745102035106704        5000                     36.726508488830724       0.0929811624750245
31.549432851649424        5000                     39.22985092350348        0.0859351671586502
28.425527052068823        5000                     41.14355532465903        0.09230457914215662
33.11447522863165         5000                     51.6174977012487         0.07067824119436802
26.349790973981438        5000.000000000001        45.509885102944985       0.08727526497602414
25.839842489959985        5000                     39.642978968186995       0.09377571040102295
28.834452998238007        5000                     39.582434888440865       0.09252096102161997
13.722461962162061        5000                     49.63734283839799        0.06720532154103633
16.015382420019254        5000                     46.1154460965324         0.07826488294076324
14.364241608729234        5000                     45.81014093942605        0.07457838481872814
16.538474834380136        5000                     49.18137531996601        0.07331555276877996
20.771279355769686        5000                     48.60052464672385        0.07888569356871203
11.307472979195435        5000                     47.74985940913534        0.06122336999822386
18.30705526697162         5000                     43.103639904898          0.08328934923536938
13.886398287293641        5000                     39.83495270471822        0.07753730592111323
16.174141314330537        5000.000000000001        38.94149351818484        0.08071011355770306
9.466471458455858         5000                     50.91545612683343        0.050096971271928636
12.246243561588866        5000                     54.95762055481377        0.054316376364523494
16.338475131143802        5000                     54.88415562977099        0.062072741700058054
18.472955592183677        5000                     56.83968752558093        0.06125050861298402
23.90240027734825         5000                     58.28726145899431        0.05845807845686761
19.561954752397497        5000                     61.58581261957224        0.0453587105026292
21.867803270509786        5000                     53.787478660207505       0.07048693308307148
15.719097089966706        5000                     56.75688509573256        0.05635373861319229
17.60336416641126         5000                     58.65806910796872        0.05456672478999305
25.93596200089447         5000.000000000001        65.21905015829248        0.030022231028245014
24.873221588393132        5000                     62.67069844092929        0.043115023727002676
20.45127731225958         4999.999999999999        62.793113591108984       0.04147593955589937
26.749229952868276        5000                     59.62763062830144        0.05483151360586759
27.482847346212385        5000                     66.51808589338253        0.023067063462540238
3.658548156394574         5000                     38.48497067573544        0.027295775204537732
11.676106264461366        5000                     10.809718552788095       0.0424450237105805
15.84556767429289         5000                     3.5419269339978268       0.021092827293594133
10.695291051985077        5000                     25.5735816033199         0.06121253429864858
12.18740855604717         5000                     29.53669641118696        0.06989595937368409
14.921298061037657        5000                     24.65350571620378        0.07502608722233826
12.139435654917914        5000                     22.09432267906012        0.06437053114015416
13.652497519450502        5000                     11.765753323222992       0.04918371527500305
30.358353605189933        5000                     29.532879367787285       0.0896851125546622
29.74485573502649         5000                     23.263272123955364       0.08485726414955186
26.98899366254866         5000                     27.241167542317235       0.09028685806266132
27.8572554064559          5000                     9.66776752650267         0.05133890559195222
29.59726518500736         5000                     18.13516377552916        0.07591676992739402
31.61057548695569         5000                     14.81577786171366        0.06531274619260394
32.79199285103066         5000                     11.11572714827648        0.05223210984095911
27.011511933418568        5000.000000000001        7.220566747673622        0.04349696355709869
25.54287644091137         5000                     32.158817634642105       0.09141396083723138
21.624242237748632        5000                     35.884915408855406       0.09242046586058913
14.471753717600205        5000                     38.013203539787526       0.07942137479901645
22.364312057881037        5000                     30.127037257774404       0.09200079479686818
19.52380800825763         5000                     33.22957357427471        0.09073834945699073
14.953575121987798        5000                     32.40005612577346        0.07813750027946142
18.682277037965985        5000                     28.872051448416762       0.08635879502515689
19.106784888420894        5000                     24.45358396837733        0.08284298873741552
23.818169229691737        5000                     26.474487063680645       0.09044123842145507
27.10839457314976         5000                     21.821645792778543       0.08406872570235674
27.459290148731398        4999.999999999999        58.10851192476337        0.060629864361234194
25.340509856946078        5000                     51.54731922207814        0.07856412899321785
33.403493271701           5000                     52.7310995459116         0.06859636195182522
33.64420475260626         5000                     52.596615675293855       0.0685721240961245
8.868440511855411         5000                     48.843866271991196       0.051382610908876504
13.833436707878496        5000                     38.79842072334503        0.07802015255453107
25.166884546835973        5000.000000000001        49.952489189768116       0.08184350343545298
33.41174385301594         5000                     52.54469397480666        0.06895255573879644
0                         4999.999999999942        70                       0
7.975519010920644         5000                     70                       0
8.487286538260175         5000                     69.18256566739049        0.00395820260442672
9.011574374034314         5000                     68.344713224146          0.007929835913470558
1.6606734838229362        4999.999999999942        68.33932651617707        0.0022023075749272574
13.38014859610385         5000                     70                       0
13.839524454962005        5000                     68.67737614381304        0.008212312075636543
14.034811502583137        5000                     68.36529236307499        0.009691668433412208
0.8224837869610283        5000                     61.45562680158613        0.0040344361683318465
0                         5000                     62.02448098907934        0
1.6673428734617515        5000                     60.87118565545089        0.008041505643403024
0                         4999.999999999942        54.04896197815871        0
1.6563666508530408        4999.999999999942        53.289920929024106       0.010946140837431523
48.44001336302709         5000.000000000058        68.44001336302709        0.0022275646388967255
49.99999999999999         5000.000000000058        70                       0
48.41592690763731         5000                     60.9299847207193         0.0075896580912365695
49.19616283980737         5000                     61.469226695497866       0.0038213913892424624
49.99999999999999         5000                     62.024480989079564       0
34.80031294982526         5000                     68.43943144740538        0.009485285851156551
34.12758827639567         5000                     68.43830549236874        0.009739478819654191
34.89334322055072         5000                     68.58746390795571        0.008793808918152958
34.1561203941738          5000                     68.51969081499666        0.00921573344994418
34.675656606538           5000                     70                       0
35.38909347227044         5000                     70                       0
33.26037664006615         5000                     68.43579733687912        0.009898824332023005
33.73539435603038         5000                     69.78926042808754        0.0014727771188617965
33.7594709781635          5000                     70                       0
16.59075672037899         5000                     70                       0
21.240722911136316        5000                     70                       0
21.287849150723908        5000                     69.57419119460087        0.0029132073727189964
21.418329091046175        5000                     68.39082337488179        0.011057467143609119
16.643987528475005        5000                     69.51723134481142        0.00332254542635144
17.040287885688567        5000                     68.37621294656792        0.010407249914771101
24.153952978182488        5000                     70                       0
24.0756194526334          5000                     69.31435674201552        0.0047916947581200355
24.175889162777427        5000                     68.40497597448959        0.011050300981788368
14.617073741433936        5000                     70                       0
15.116986136417149        5000                     68.56066432996315        0.008936988130559759
15.183735118530258        5000                     68.36826758024472        0.010113551972275519
0                         5000                     30.013974732144593       0
0                         5000                     31.474954980094232       0
0.20151132463472915       5000                     31.491334751901643       0.0015864005700940093
0.3280297260345269        5000                     30.098166813240653       0.0025037289778479218
1.6705909996936796        5000                     31.609949824201937       0.013111277194567974
1.6743270822027139        5000                     30.206868309116413       0.013065382775877099
0.8245287525009211        5000                     45.855844028497415       0.006157642168439861
0                         5000                     46.073442967237895       0
1.6566944637671843        5000                     45.6361117277109         0.012412442827904406
0                         5000                     34.225519011068684       0
0.6237513927822375        5000                     34.170207063086465       0.004891514117279452
1.6671318437924327        5000                     34.254450722388555       0.013076795810593993
0                         5000                     40.88512113031001        0
1.18809789096509          5000                     40.77976503891963        0.00931716974681708
1.6636211545367063        5000                     40.654203724186885       0.012891341552156951
48.320552724938146        5000.000000000058        1.6794472750618565       0.0022319361401720614
48.309508004752104        5000                     9.141240377205502        0.008242643974634842
49.14451754552273         5000                     8.565440230820023        0.0041573033941460155
49.99999999999999         5000.000000000058        0                        0
49.99999999999999         5000                     7.975519010920434        0
48.32324983577531         5000.000000000057        16.712325950793765       0.01103921829441632
49.99999999999999         5000.000000000057        15.951038021840857       0
48.37791712974826         5000                     30.20535497299381        0.012675342486253165