% Model:              SIM_COMSOL - copia.mph
% Version:            COMSOL 5.5.0.359
% Date:               Feb 20 2025, 09:42
% Dimension:          1
% Nodes:              6572
% Expressions:        1
% Description:        Line graph
% cln1x                   Height
0                         1.8413070420134677E-27
1.1833165619756765        0
2.958291404939278         0
4.733266247902871         1.88949006450238E-31
5.916582809878561         0
7.0998993718542405        0
8.874874214817842         1.3097517804065588E-31
10.649849057781454        0
11.833165619757127        0
13.01648218173279         1.5610811275954516E-34
14.791457024696411        0
16.566431867660047        8.825404184919526E-35
17.749748429635694        0
18.93306499161134         0
20.708039834574972        0
22.483014677538627        0
23.66633123951425         0
24.849647801489827        0
26.624622644453517        0
28.245314478649487        0
29.416427522113924        0
30.669868923499205        0
32.236763122337415        0
33.55455080270791         0
34.77578377386786         0
36.0534353949286          0
37.362818429600644        0
38.9981520796466          0
40.29210541487121         7.590491441475153E-34
41.4527276990938          0
43.29391856923818         0
45.130167454240855        0
46.33366876048575         0
47.516985322461444        8.596300996626107E-35
49.291960165425024        0
51.066935008388604        0
52.250251570364306        0
53.43356813233999         0
55.20854297530359         0
56.98351781826716         0
58.16683438024287         0
59.35015094221856         2.5937086713155284E-31
61.125125785182156        3.769017712303556E-30
62.90010062814575         0
64.08341719012144         0
65.26673375209712         6.914682657446639E-31
67.0417085950607          0
68.81668343802431         0
70                        1.2066303123054935E-15
0                         1.8413070420134677E-27
1.1833165619756765        0
2.958291404939278         0
4.733266247902871         1.88949006450238E-31
5.916582809878561         0
7.0998993718542405        0
8.874874214817842         1.3097517804065588E-31
10.649849057781454        0
11.833165619757127        0
13.01648218173279         1.5610811275954516E-34
14.791457024696411        0
16.566431867660047        8.825404184919526E-35
17.749748429635694        0
18.93306499161134         0
20.708039834574972        0
22.483014677538627        0
23.66633123951425         0
24.849647801489827        0
26.624622644453517        0
28.245314478649487        0
29.416427522113924        0
30.669868923499205        0
32.236763122337415        0
33.55455080270791         0
34.77578377386786         0
36.0534353949286          0
37.362818429600644        0
38.9981520796466          0
40.29210541487121         7.590491441475153E-34
41.4527276990938          0
43.29391856923818         0
45.130167454240855        0
46.33366876048575         0
47.516985322461444        8.596300996626107E-35
49.291960165425024        0
51.066935008388604        0
52.250251570364306        0
53.43356813233999         0
55.20854297530359         0
56.98351781826716         0
58.16683438024287         0
59.35015094221856         2.5937086713155284E-31
61.125125785182156        3.769017712303556E-30
62.90010062814575         0
64.08341719012144         0
65.26673375209712         6.914682657446639E-31
67.0417085950607          0
68.81668343802431         0
70                        1.2066303123054935E-15
0                         0
0.18080324047486698       0.16531545118276583
0.3612814786671954        0.29398172859209665
0.5609256973451835        0.3921335937443711
0.6386825412542299        0.41735332638603795
0.7190850229140595        0.4799259650496217
0.7916799391154411        0.5299358106553842
1                         0.6382941646999956
1.8649587958104852        1.1803405791710218
2.117174739730549         1.3383736331843905
2.84838519566338          1.796044331232727
3.699100989191132         2.3288752312472467
4.603216556005622         2.7555184365455685
5.197966225199005         3.037568745056318
5.391062669065476         3.1273127473452043
6.101633549662516         3.4174093534224954
6.46778241648433          3.566761765327181
7.436944053147525         3.7997597594945964
7.571593921695867         3.832166349608969
7.986400145403498         3.9074651259816493
9.284517421618792         4.139112926297893
9.837705712382377         4.265037772615149
10.563892539769956        4.431043710113023
10.788020922569185        4.48244081804348
11.012876627003406        4.534424517723619
11.740086349392467        4.7162740454622565
12.13603107464387         4.815337368003818
13.115622048019862        5.040389390927105
13.27315123422778         5.076597813439533
13.744323572425593        5.187662569167242
15.012356089456002        5.486649433282249
16.289186755495972        5.66843144258707
16.760907355569525        5.735464187000606
17.5086208989021          5.834136426319712
17.91083932282951         5.887114750193049
18.927611751609895        6.020805575772928
19.066547987386404        6.039000746318138
19.465227254895737        6.088242899113668
20.820620489244536        6.254761352439249
22.21898647084021         6.382874268445991
22.57996903819704         6.415747273423562
23.367907068465737        6.48834441081664
23.74253240780711         6.522766506373099
24.804841225287475        6.59668098602577
24.910001395652735        6.603989241694792
25.21862775209684         6.624528021019449
26.673349059926533        6.721235467185355
28.06153823264103         6.790503946950651
28.285901406368364        6.801759133129857
29.072512288534025        6.842791994756746
29.44494463651785         6.862383020017642
30.094457754698784        6.888402375362883
30.693566363099023        6.912733929857431
30.89681815957836         6.922156453459498
31.477437914499006        6.949319247784265
32.24787112266577         6.985933005924103
32.62043144183039         6.9880969570072295
33.38943441633405         6.992621148982094
33.4827306613618          6.9931760404382715
33.560718879433175        6.99364026794515
34.41177892422456         6.998533914934199
34.772438073044796        7.0006250905128
35.335691167581174        7.001173249324491
35.8553382029059          7.001747392404734
36.0447569717527          7.001947222104619
36.58703245117634         6.99592136103153
37.344813051887016        6.987374741140819
37.648619539157984        6.979755183572245
38.06866834695538         6.969147470467429
38.473665712274816        6.958838909484273
38.97223213489746         6.946022375132655
39.55996829824432         6.926369155470882
40.25610195999827         6.9028290728351065
40.66489091874358         6.883557710359391
41.29799584245827         6.853516016698312
41.41144019435028         6.848087129405628
42.03498084006777         6.813963747373469
43.2366541877812          6.747433122972949
43.391891887699956        6.739558877941764
45.057818202587754        6.6545180601128635
45.529609808770125        6.627008681064278
46.24728162397442         6.585000663016268
46.85328300644069         6.516298938562962
47.41321056078846         6.452764216115418
49.07122743024095         6.262019193618964
49.16974874593357         6.250711705019233
49.268679475297326        6.240768197978307
50.91995112830022         6.074791792030534
51.38020274398757         6.02198313045591
52.08040151338578         5.941966698778228
52.69998304515977         5.838940226974128
53.23393387892289         5.750182933178251
54.01652891651778         5.621567401079453
54.781373691377766        5.496733663931029
54.892900530860956        5.478601217076249
54.97824390529927         5.464736474987399
56.10666142483552         5.2601042206513835
56.693202482665015        5.154610848360341
56.842052879485784        5.128982713598324
57.44333852417075         5.0262755598048505
57.85613346071356         4.956180024812281
58.55390606265563         4.732131898738224
58.986350155184944        4.594813691595246
59.58052286594159         4.4167268357987535
60.151191929201566        4.248060666698354
60.46471654979947         4.156308498362338
60.711531699192655        4.084529709933951
61.684068781063885        3.8210726830533064
62.30573056390012         3.655365246524793
62.38065001986681         3.6355345863875272
63.032847608326534        3.476807456915161
63.53179287594304         3.357051042856458
64.34330155047039         3.0782841176773874
64.61409816887024         2.9858317933412852
64.9944448351714          2.8559813644096788
65.3761482857042          2.7262681289072312
65.89724887706664         2.550200601761176
66.30253662059087         2.4140585834878463
67.11765672505973         1.877257072224246
67.64550746873302         1.5329752453469172
67.8805247659095          1.3805223127977815
68.59776322517793         0.9142072277636563
69                        0.6537439986419141
69.22207999785628         0.5300578943781806
69.29620439032891         0.47645118182311463
69.38059258289334         0.4081791188230724
69.45384131713433         0.38352017916154696
69.6436638328316          0.28919192588456855
69.81901850382737         0.16456580718046043
70                        4.4338324474607167E-16
0                         0
0.07942218365921928       0.12438317851762933
0.22621315459146113       0.3373841697384396
0.3618169571659128        0.5141097292234058
0.6305864493436177        0.8049487063476173
0.6611220154033011        0.848081444279386
0.7144951897333598        0.9210691284238807
0.9355035933149745        1.1899595105391878
0.9587999616549223        1.215111387024122
1.2105992338323446        1.4462092868272836
1.3429706784069997        1.5367585804977921
1.400253125020686         1.5690903220893082
1.8402490384951602        1.9677055957373806
2.6671407732113135        3.1326662217845094
2.6690701297728214        3.1353844104988626
3.900398154168225         4.249406696078536
5.17031697357543          5.087173471793067
6.116280673668513         5.889295911438125
6.1171135830395835        5.8900021786441155
6.339950555139325         6.253352518984274
6.808115482346613         6.777544445982006
7.166905564828177         7.105257668599762
7.721400278364573         7.287776237049768
8.549444651273323         7.4727384938861485
8.65757494083651          7.49689398983759
10.131307103294256        8.466863782400255
10.169046621580005        8.478919587588065
10.194029825807723        8.487706227719556
11.07769861436971         8.798500037739007
12.328353091735485        9.38324440665824
12.402712792342811        9.418075726473752
12.642310780961164        9.484054833961482
14.137670076156445        10.00425220134341
14.206873343506832        10.028327009913152
14.22166233006941         10.036953267255063
14.272719496035752        10.066734403290702
15.431637252913783        10.734983708236266
16.00466930583535         10.846637624119618
16.56769205407862         10.968706408717793
17.283937073628522        11.123996601710736
17.493851993923013        11.20412270892325
18.026567770506833        11.407464911328296
18.467006900522833        11.620856040241728
19.47612746532534         11.827834801061726
20.01270319673812         11.937891189602176
20.369720683288033        12.000600673225888
21.427240497556518        12.334940115644413
22.678257107430557        12.497076745578363
22.936839488508795        12.53059038965523
23.112576932675623        12.553496632808017
23.265039365304794        12.588476852285565
24.026448829961698        12.75330777933541
24.46733007335336         12.848750738981709
25.136570386112634        12.911972796135094
25.758879527812372        12.97076151456159
26.355404232059847        13.02666301297941
27.12852439494            13.149066593158027
27.593172155897594        13.22515189160108
28.99367957104398         13.31768030600566
29.894723574077037        13.432701493465013
30.159262508286723        13.466473438617948
30.352201443989962        13.484438924349343
31.178401255573807        13.515548580631629
32.036857310807676        13.547879089830632
32.28553561902591         13.5635242086946
32.81132987826413         13.636765706715416
32.981430550144616        13.660460282799873
33.44285149629817         13.662015075179921
33.85898901975221         13.66341812103703
34.228731748044964        13.664084098469461
34.54564052731095         13.662546804807866
34.89096535423843         13.620937815878321
35.15883844742342         13.588661986423272
35.487525182725285        13.651550186966167
35.982449847425684        13.647290033605264
36.46856720349622         13.643106134073921
37.20524345426456         13.540283812305425
37.26604130634219         13.539341277973348
38.10827731672193         13.526284590661078
38.77787725158648         13.592678586400075
39.34000487455068         13.563678620963008
39.62048713866439         13.53252987958454
40.24765798660991         13.462880808101708
40.85830002439887         13.374938200595174
41.58970940500345         13.312210660789775
42.84444804871963         13.204603903277548
42.877400094753156        13.199687240011961
42.89867079025876         13.197552903440078
44.673506146560435        13.038480357311279
45.733226902285196        12.848724450982486
47.12885034101348         12.591497770325027
47.46538627392857         12.527596601159226
47.55373202860621         12.510821604783914
47.69042171354547         12.492008539189523
47.91642349036546         12.460903153121194
48.255481038450014        12.413623497254703
49.24183248619713         12.130396943138965
49.93092768261958         11.931019759167954
50.132702805182674        11.893422570845143
51.66702533445766         11.672042398154167
52.15138747074626         11.443819639956383
53.02712566637325         11.163883844465222
53.59657728990652         11.002042612929273
54.205801425681024        10.828897996563557
54.49104213922538         10.772114736672517
56.2250279056095          10.018650670382804
56.33864001682206         9.96947310151434
57.04832801330911         9.89792681969132
58.29200697506811         9.040878044165831
58.30642867702706         9.03094010036862
58.316241108882174        9.0241518214324
58.32581429834016         9.018286011872943
59.771701142507325        8.285435739963741
60.91413026915069         7.706402920395368
61.216707186591734        7.593663023159676
61.529014667811985        7.484927105574894
61.745782533937856        7.415362159962062
62.61753170397204         7.135606032828847
63.473220433830505        6.318501283969298
63.76182833687921         6.042912761482956
64.09306831907386         5.721962958699418
64.41736766535891         5.577884319825939
64.80543117086859         5.412154169646422
65.11145316158392         5.281461520919651
65.86922070605354         4.518310932680052
66.20718576396153         4.177947285508461
67.06554524742751         3.406756002331623
68.23707729543557         1.9094134889763237
68.63734074863464         1.548644543667777
68.68758566265794         1.5164748975553597
68.80562342695839         1.4293728579300378
69.04134880503355         1.208909738741743
69.07441408863487         1.1732111566825083
69.29288888717392         0.9104727523503097
69.34825439412876         0.8359921220543832
69.38032435425455         0.7914240811805021
69.63717309281176         0.5128711396953483
69.7728996095456          0.33679437946753416
69.91951055329585         0.12525409884476205
70                        0
0                         9.461108929357233E-29
0.007582793343720969      0.016711839076044423
0.05647758995754999       0.12365975377277985
0.17667183996589436       0.37700730688251205
0.503203165725645         0.9949152073736819
0.5429519844483003        1.0628212217857764
0.6217349508543205        1.1925453950356648
0.7751521115921056        1.4955652549231844
1.0433102603317057        1.9672176629166078
1.151693667691667         2.135951537959531
1.380126013534089         2.448120604494241
2.0492806052551216        3.6791537136335597
3.0375422408751533        5.071491096717382
3.0427487454225046        5.078826422318177
3.7257254836855394        5.696756148372529
4.430107253574553         6.161422974431699
4.954801883766239         6.606312962106683
4.958712064733463         6.609628444874786
6.004843753680937         8.315396511884895
7.119272815096732         9.56325443375432
7.325483944843793         9.794162714718512
7.415558833720347         9.892266293400255
7.656440944806859         10.210321581883429
7.958744569770852         10.609476897258121
8.044227444708007         10.72006787757122
9.893118732550484         11.851548771014782
10.804040079299826        12.592135707066827
11.094255960977787        12.828091663913035
12.037289303236257        13.68222062838328
12.42436208595343         13.868856164171499
12.71786103549247         13.97095359658553
14.047968649145862        14.74681324734951
14.332066673374676        14.91253254521161
15.033420873040908        15.388258228977307
15.280563038053895        15.533598123071398
15.669677314836614        15.731223622041014
16.13963335654098         15.954208225535861
16.223993270504113        15.972498102662241
17.061151629431475        16.292043958663225
17.131311217551044        16.318824155314232
19.34003465034467         17.388932900781185
19.452455465389704        17.411991262555492
20.117655089119907        17.639209519971164
21.109755178880526        17.937184528740186
21.209560484117716        17.96330153841673
21.31786111516841         17.991641826019542
22.24611356827279         18.27341205609976
22.400395321699115        18.35378226669652
23.921695309147857        18.69225644587919
24.16222042900161         18.745771290335373
25.497816170567354        19.0183999158701
26.398090076853887        19.200352148783587
26.641217073251717        19.25865447828993
26.670752965167733        19.26257034810329
28.543681550366124        19.510884391785893
30.007166906907663        19.726991318436035
31.250483897129495        19.951835470037363
31.846241581938795        20.00731422768067
31.95910928477337         20.01156478591338
32.11440840617334         20.017413418465438
32.62139710829514         20.06853348369061
33.424138153858           20.000153476663343
34.120346005834136        20.044888122531965
34.136596169403624        20.045932350918317
34.15137708160339         20.049317097743117
34.18897459145291         20.046814777920062
35.245925181365656        19.919456639731646
35.51536271294711         19.971007972291034
36.667745129915545        19.95523753309219
36.942575443023095        19.951476625147016
37.71078231100862         19.844252703147983
37.91928606588219         19.841020584202415
38.22791804260031         19.83623637067155
38.64535508135876         19.877627083524622
39.138421771958235        19.847663081828852
40.38597349871178         19.626965133283182
40.66263305699066         19.606534055492386
41.66598120896694         19.532438158790654
42.339575065310605        19.473206912195835
42.65090576410576         19.378358564797033
43.21169923437851         19.25432072155069
43.399067623386884        19.22896591127269
45.51779876046778         18.94227760237778
45.58867150954231         18.929333517238838
45.76410422066151         18.89277598076768
46.17861323685091         18.784554727443286
46.280023507082596        18.73859600778599
47.535819705818724        18.169484499269085
47.998510491562236        17.982015990047266
48.48883879110413         17.85303432295199
48.69799179461626         17.798016313268523
49.6054228497235          17.57314976825123
49.6447625075272          17.56595477570994
50.447996336125           17.419050794642562
50.80128390471816         17.300049771647437
51.47201545688414         17.055683608247605
52.32332761885093         16.745538414691023
52.34364676747569         16.7359648144572
52.37725726303191         16.725219965633013
52.413401139180785        16.709729468435903
53.59083631265009         16.20512172765901
54.329312268473686        15.714400810937597
54.61889010997445         15.544469757839218
54.658221140725146        15.521389604641866
56.28396260760695         14.800564303908015
56.55382853158141         14.608464019945622
56.571966173808775        14.595553165597613
56.628864592444785        14.536835495774781
57.138740709720835        14.010663768986698
57.57010969846672         13.697870876910068
57.85851899787039         13.53104965347687
58.26695488647854         13.294804993733287
59.29074016735692         12.710647257561968
59.32692959240878         12.685613306095052
59.46166707228587         12.603050802344285
60.47565642788415         11.937399442375732
60.82590189057082         11.603028314146068
61.06013313037516         11.37941445176161
61.928778453372445        10.646178311393628
62.631719989579736        9.974095979548524
63.23142716510354         9.263791280453637
64.3144814037258          7.981021422283739
64.68513788643004         7.596402675014417
65.37726695732474         6.560961766127111
65.47822080477255         6.447034088063979
65.59482716367025         6.329598174360385
65.87787054193421         6.044541464958959
66.37000486166889         5.589587601726639
66.46325151277463         5.423141123424928
66.59531092572249         5.201085018808478
68.19695330580899         3.1540490307110294
68.63573243473658         2.3862825101093934
68.8502651333666          2.0954614361698067
68.95779110110834         1.9314281635832125
69.22459823728073         1.4747039105069983
69.37914381428237         1.1793698887711779
69.45482893790715         1.0554259592392365
69.49482320946116         0.9876021857608162
69.82095407111856         0.37686125702191087
69.94368747136738         0.12157591066390404
69.99218596438887         0.016989055208648747
70                        0
0                         0
0.1893868875042374        0.48417354174055593
0.27103962397254544       0.6866877725337601
0.5178721739992207        1.2753765696656618
0.6137289952018603        1.4942435276476325
0.744415473011111         1.8294862318850478
0.887444288011215         2.1883875931416057
1.3509476638430837        3.2915545469504126
1.3590928930507575        3.3100935022418754
1.6380690998586622        3.840103180077575
3.208951181581845         6.730011311409519
3.4079437085389928        7.010366993319342
3.416427361072188         7.022319405352354
3.5510528132028547        7.14412437855561
3.689897533573677         7.23571525869828
3.7933230938639664        7.323406279731707
3.8003105464273434        7.329330716825477
5.66973695222255          10.377478237510228
5.784281148222813         10.50573517853127
5.805476116014819         10.529467598573412
6.468960062661168         11.252060351371744
8.243277141855312         13.594830381893347
8.36250270908269          13.752253705098713
9.16779895697568          14.794092856791627
9.397246604511018         14.934510698721041
9.510292061253503         15.026412381631538
10.101466986045589        15.50702410012349
10.479887131455841        15.795664472945129
10.710034424628027        16.04076479535569
10.786051172136215        16.117188019525823
12.423952905976613        17.763865879374034
12.662002159277536        18.05996178201768
13.060678298569622        18.555881984388122
13.767022542136964        18.96485324916114
14.165238663937929        19.21133162714184
15.33593049138755         19.935951823678877
16.576961401923004        20.92151019538796
16.780022126721047        21.05348662456641
16.89926838043783         21.10575097155966
18.2829712033747          21.74892099872589
18.76617200858261         21.973523582768188
19.732604724383933        22.61753543230877
20.03069603791299         22.813170365853065
20.1217229491464          22.872910810474565
21.153578083714685        23.142915947569236
21.721575345906416        23.291550672842494
22.30087371643218         23.56944477769229
23.243178823216923        24.06032461682509
23.678451995346204        24.28707422989404
23.982966405888735        24.354826741623324
24.511496019824346        24.47242149996337
25.159239738541817        24.60338408513566
26.762053081931402        25.02517333521196
27.44905254478015         25.20596178267063
27.912571889980175        25.317114675427717
28.311259655106653        25.369973140684714
28.679039763425468        25.418733899318944
28.966419008531513        25.461169634898305
29.470390795807788        25.552305630482856
29.95466948246321         25.639881536800267
31.714929282402576        25.73835451286678
32.632956925164066        25.913463154625692
33.232322688115524        25.86240599334928
33.52111142541074         25.880958737601027
34.45763747155864         25.94113031935833
34.93928630099289         26.051424253734226
35.22765116173192         26.034836315274926
37.04545619295326         25.98504178583617
37.588522281801865        25.9814551166397
37.91838264451236         25.979276678768137
38.001646142730685        25.959807020696452
38.219191068737           25.908938099807063
38.23453375204517         25.90583045787113
38.29454565695814         25.903053312628145
38.372133353430904        25.898460245754507
39.506506756835           25.83130731456169
40.86621329312362         25.575481661442428
41.48006932369965         25.52962010025239
41.70802183413927         25.456525395193623
43.02113378045429         25.056480282098477
43.19194293919747         25.018700174038663
43.85221866356274         24.92935499526243
44.29373160233537         24.86961320487427
44.39313520781397         24.85145708041511
45.50877615096494         24.26941969466203
46.579314917052244        23.920254888449616
46.74087724802959         23.87824144020111
46.802093284372205        23.858642650122434
48.057293204583914        23.350069004328493
49.60204736688355         22.94371975545684
49.61667733851562         22.93987132971786
49.767896023050575        22.90239801287755
50.50316290299125         22.445281126095022
51.31778471461496         22.199578343918446
51.88179297465041         21.878778528075877
52.384661457181735        21.63684132356654
53.850947700915256        20.737560246358658
54.21885442716597         20.51194078486203
54.94608185190531         20.028747212806262
55.00344474509329         19.99508702570599
55.118124537770406        19.92779391406013
55.36880942186948         19.816645438565022
55.410422008650315        19.78702270281867
55.490942949609035        19.729702520816737
55.74353996030062         19.4690245738269
56.077181202619094        19.124712959235488
57.82835162602148         17.386265423356456
58.11127728211053         17.222621479545705
58.746734548020044        16.85507742089336
59.992500326010834        15.3334361217502
61.06617749324986         14.308424739923513
61.682258032692815        13.720276660890862
62.238546988551406        13.061310939403445
62.74710970902336         12.30510842132482
63.4849342459703          11.43121408827204
64.18743501466508         10.599166345833073
64.99836231520021         9.402395323403454
65.22597894378725         9.06268298924967
65.8755659004829          8.093195602850663
66.21965524060616         7.46643239137998
66.57786637539594         6.845256478601532
66.78783589570628         6.470464199823574
67.2450390142217          5.701691046116193
67.53800470869488         5.135983545088953
67.56313040901912         5.087466775842267
68.63316218789025         3.2268595616266245
69.04609814010108         2.3093631538521104
69.10204492088211         2.1776527351866326
69.2466470620417          1.8293638027810397
69.3797164317227          1.4990422277824444
69.61981365847161         0.9467333740917836
69.72195626621266         0.7008865397112855
69.80483763487155         0.49675075623934817
70                        6.209464873386643E-34
0                         0
0.08816505210794226       0.2644797463855966
0.36521550846050327       1.0688968901209193
0.3713006670270078        1.086100510501181
0.4525520347130568        1.3138888563524915
0.6063220704912998        1.7351021928299304
0.9602808070838792        2.7314413901018955
0.997341552240817         2.8329499807775016
1.1174416907413895        3.158128742959873
1.3418635178588483        3.749958881578931
2.268909410679331         5.511216258656844
2.2726090841997766        5.51827757111745
2.8232546697736174        6.569257678071329
2.8253793293779106        6.575055084246391
3.0002323196151406        7.052163906205373
3.5555753008521984        8.577562099648857
3.8454653328687387        9.202079852918299
3.8494932165981592        9.21075726180688
5.650499526812096         12.382553216126915
5.978867969045687         13.171955147602873
8.202152368755227         16.101055744586787
8.744477731689951         16.92401047217811
9.101144804259693         17.465240176834335
9.592674237898166         18.271309771907003
9.612046582092978         18.303079027990083
10.732288440228759        19.817611720982917
11.1518972399746          20.26448296120936
11.965904093736615        21.082843867767586
12.403299356224352        21.522581563160685
12.933826631333654        22.182445471387407
13.430941605214924        22.800801632312286
13.903288231307846        23.35212163195817
14.343379148469795        23.62452213332126
14.750990609889792        23.876821005279083
15.387749735030487        24.38249928688278
16.13515414411923         24.976046144007036
17.334031878131867        26.017196248367345
18.085331599460467        26.369892684000288
19.004527693963706        27.0412127356089
19.418814069880845        27.3130987676708
20.8636250154164          28.26130708435763
21.097595683311656        28.3225312249633
21.226387695238095        28.356233098721727
23.142957176277644        29.27562727688555
23.218015887580624        29.31472816063314
23.489301908453918        29.449683307026703
24.632982661665356        29.966388669696254
24.750952623596785        30.027290412087638
24.884048691443727        30.096001179028708
27.761942838483577        30.742175647733568
28.382814524028078        30.881580996782233
28.473667442639854        30.904278076844996